# vtk DataFile Version 3.0
fim
ASCII
DATASET RECTILINEAR_GRID
DIMENSIONS 600 600 1
X_COORDINATES 600 float
43.000000 43.001669 43.003339 43.005008 43.006678 43.008347 43.010017 43.011686 43.013356 43.015025 43.016694 43.018364 43.020033 43.021703 43.023372 43.025042 43.026711 43.028381 43.030050 43.031720 43.033389 43.035058 43.036728 43.038397 43.040067 43.041736 43.043406 43.045075 43.046745 43.048414 43.050083 43.051753 43.053422 43.055092 43.056761 43.058431 43.060100 43.061770 43.063439 43.065109 43.066778 43.068447 43.070117 43.071786 43.073456 43.075125 43.076795 43.078464 43.080134 43.081803 43.083472 43.085142 43.086811 43.088481 43.090150 43.091820 43.093489 43.095159 43.096828 43.098497 43.100167 43.101836 43.103506 43.105175 43.106845 43.108514 43.110184 43.111853 43.113523 43.115192 43.116861 43.118531 43.120200 43.121870 43.123539 43.125209 43.126878 43.128548 43.130217 43.131886 43.133556 43.135225 43.136895 43.138564 43.140234 43.141903 43.143573 43.145242 43.146912 43.148581 43.150250 43.151920 43.153589 43.155259 43.156928 43.158598 43.160267 43.161937 43.163606 43.165275 43.166945 43.168614 43.170284 43.171953 43.173623 43.175292 43.176962 43.178631 43.180301 43.181970 43.183639 43.185309 43.186978 43.188648 43.190317 43.191987 43.193656 43.195326 43.196995 43.198664 43.200334 43.202003 43.203673 43.205342 43.207012 43.208681 43.210351 43.212020 43.213689 43.215359 43.217028 43.218698 43.220367 43.222037 43.223706 43.225376 43.227045 43.228715 43.230384 43.232053 43.233723 43.235392 43.237062 43.238731 43.240401 43.242070 43.243740 43.245409 43.247078 43.248748 43.250417 43.252087 43.253756 43.255426 43.257095 43.258765 43.260434 43.262104 43.263773 43.265442 43.267112 43.268781 43.270451 43.272120 43.273790 43.275459 43.277129 43.278798 43.280467 43.282137 43.283806 43.285476 43.287145 43.288815 43.290484 43.292154 43.293823 43.295492 43.297162 43.298831 43.300501 43.302170 43.303840 43.305509 43.307179 43.308848 43.310518 43.312187 43.313856 43.315526 43.317195 43.318865 43.320534 43.322204 43.323873 43.325543 43.327212 43.328881 43.330551 43.332220 43.333890 43.335559 43.337229 43.338898 43.340568 43.342237 43.343907 43.345576 43.347245 43.348915 43.350584 43.352254 43.353923 43.355593 43.357262 43.358932 43.360601 43.362270 43.363940 43.365609 43.367279 43.368948 43.370618 43.372287 43.373957 43.375626 43.377295 43.378965 43.380634 43.382304 43.383973 43.385643 43.387312 43.388982 43.390651 43.392321 43.393990 43.395659 43.397329 43.398998 43.400668 43.402337 43.404007 43.405676 43.407346 43.409015 43.410684 43.412354 43.414023 43.415693 43.417362 43.419032 43.420701 43.422371 43.424040 43.425710 43.427379 43.429048 43.430718 43.432387 43.434057 43.435726 43.437396 43.439065 43.440735 43.442404 43.444073 43.445743 43.447412 43.449082 43.450751 43.452421 43.454090 43.455760 43.457429 43.459098 43.460768 43.462437 43.464107 43.465776 43.467446 43.469115 43.470785 43.472454 43.474124 43.475793 43.477462 43.479132 43.480801 43.482471 43.484140 43.485810 43.487479 43.489149 43.490818 43.492487 43.494157 43.495826 43.497496 43.499165 43.500835 43.502504 43.504174 43.505843 43.507513 43.509182 43.510851 43.512521 43.514190 43.515860 43.517529 43.519199 43.520868 43.522538 43.524207 43.525876 43.527546 43.529215 43.530885 43.532554 43.534224 43.535893 43.537563 43.539232 43.540902 43.542571 43.544240 43.545910 43.547579 43.549249 43.550918 43.552588 43.554257 43.555927 43.557596 43.559265 43.560935 43.562604 43.564274 43.565943 43.567613 43.569282 43.570952 43.572621 43.574290 43.575960 43.577629 43.579299 43.580968 43.582638 43.584307 43.585977 43.587646 43.589316 43.590985 43.592654 43.594324 43.595993 43.597663 43.599332 43.601002 43.602671 43.604341 43.606010 43.607679 43.609349 43.611018 43.612688 43.614357 43.616027 43.617696 43.619366 43.621035 43.622705 43.624374 43.626043 43.627713 43.629382 43.631052 43.632721 43.634391 43.636060 43.637730 43.639399 43.641068 43.642738 43.644407 43.646077 43.647746 43.649416 43.651085 43.652755 43.654424 43.656093 43.657763 43.659432 43.661102 43.662771 43.664441 43.666110 43.667780 43.669449 43.671119 43.672788 43.674457 43.676127 43.677796 43.679466 43.681135 43.682805 43.684474 43.686144 43.687813 43.689482 43.691152 43.692821 43.694491 43.696160 43.697830 43.699499 43.701169 43.702838 43.704508 43.706177 43.707846 43.709516 43.711185 43.712855 43.714524 43.716194 43.717863 43.719533 43.721202 43.722871 43.724541 43.726210 43.727880 43.729549 43.731219 43.732888 43.734558 43.736227 43.737896 43.739566 43.741235 43.742905 43.744574 43.746244 43.747913 43.749583 43.751252 43.752922 43.754591 43.756260 43.757930 43.759599 43.761269 43.762938 43.764608 43.766277 43.767947 43.769616 43.771285 43.772955 43.774624 43.776294 43.777963 43.779633 43.781302 43.782972 43.784641 43.786311 43.787980 43.789649 43.791319 43.792988 43.794658 43.796327 43.797997 43.799666 43.801336 43.803005 43.804674 43.806344 43.808013 43.809683 43.811352 43.813022 43.814691 43.816361 43.818030 43.819699 43.821369 43.823038 43.824708 43.826377 43.828047 43.829716 43.831386 43.833055 43.834725 43.836394 43.838063 43.839733 43.841402 43.843072 43.844741 43.846411 43.848080 43.849750 43.851419 43.853088 43.854758 43.856427 43.858097 43.859766 43.861436 43.863105 43.864775 43.866444 43.868114 43.869783 43.871452 43.873122 43.874791 43.876461 43.878130 43.879800 43.881469 43.883139 43.884808 43.886477 43.888147 43.889816 43.891486 43.893155 43.894825 43.896494 43.898164 43.899833 43.901503 43.903172 43.904841 43.906511 43.908180 43.909850 43.911519 43.913189 43.914858 43.916528 43.918197 43.919866 43.921536 43.923205 43.924875 43.926544 43.928214 43.929883 43.931553 43.933222 43.934891 43.936561 43.938230 43.939900 43.941569 43.943239 43.944908 43.946578 43.948247 43.949917 43.951586 43.953255 43.954925 43.956594 43.958264 43.959933 43.961603 43.963272 43.964942 43.966611 43.968280 43.969950 43.971619 43.973289 43.974958 43.976628 43.978297 43.979967 43.981636 43.983306 43.984975 43.986644 43.988314 43.989983 43.991653 43.993322 43.994992 43.996661 43.998331 44.000000 
Y_COORDINATES 600 float
16.900000 16.901503 16.903005 16.904508 16.906010 16.907513 16.909015 16.910518 16.912020 16.913523 16.915025 16.916528 16.918030 16.919533 16.921035 16.922538 16.924040 16.925543 16.927045 16.928548 16.930050 16.931553 16.933055 16.934558 16.936060 16.937563 16.939065 16.940568 16.942070 16.943573 16.945075 16.946578 16.948080 16.949583 16.951085 16.952588 16.954090 16.955593 16.957095 16.958598 16.960100 16.961603 16.963105 16.964608 16.966110 16.967613 16.969115 16.970618 16.972120 16.973623 16.975125 16.976628 16.978130 16.979633 16.981135 16.982638 16.984140 16.985643 16.987145 16.988648 16.990150 16.991653 16.993155 16.994658 16.996160 16.997663 16.999165 17.000668 17.002170 17.003673 17.005175 17.006678 17.008180 17.009683 17.011185 17.012688 17.014190 17.015693 17.017195 17.018698 17.020200 17.021703 17.023205 17.024708 17.026210 17.027713 17.029215 17.030718 17.032220 17.033723 17.035225 17.036728 17.038230 17.039733 17.041235 17.042738 17.044240 17.045743 17.047245 17.048748 17.050250 17.051753 17.053255 17.054758 17.056260 17.057763 17.059265 17.060768 17.062270 17.063773 17.065275 17.066778 17.068280 17.069783 17.071285 17.072788 17.074290 17.075793 17.077295 17.078798 17.080301 17.081803 17.083306 17.084808 17.086311 17.087813 17.089316 17.090818 17.092321 17.093823 17.095326 17.096828 17.098331 17.099833 17.101336 17.102838 17.104341 17.105843 17.107346 17.108848 17.110351 17.111853 17.113356 17.114858 17.116361 17.117863 17.119366 17.120868 17.122371 17.123873 17.125376 17.126878 17.128381 17.129883 17.131386 17.132888 17.134391 17.135893 17.137396 17.138898 17.140401 17.141903 17.143406 17.144908 17.146411 17.147913 17.149416 17.150918 17.152421 17.153923 17.155426 17.156928 17.158431 17.159933 17.161436 17.162938 17.164441 17.165943 17.167446 17.168948 17.170451 17.171953 17.173456 17.174958 17.176461 17.177963 17.179466 17.180968 17.182471 17.183973 17.185476 17.186978 17.188481 17.189983 17.191486 17.192988 17.194491 17.195993 17.197496 17.198998 17.200501 17.202003 17.203506 17.205008 17.206511 17.208013 17.209516 17.211018 17.212521 17.214023 17.215526 17.217028 17.218531 17.220033 17.221536 17.223038 17.224541 17.226043 17.227546 17.229048 17.230551 17.232053 17.233556 17.235058 17.236561 17.238063 17.239566 17.241068 17.242571 17.244073 17.245576 17.247078 17.248581 17.250083 17.251586 17.253088 17.254591 17.256093 17.257596 17.259098 17.260601 17.262104 17.263606 17.265109 17.266611 17.268114 17.269616 17.271119 17.272621 17.274124 17.275626 17.277129 17.278631 17.280134 17.281636 17.283139 17.284641 17.286144 17.287646 17.289149 17.290651 17.292154 17.293656 17.295159 17.296661 17.298164 17.299666 17.301169 17.302671 17.304174 17.305676 17.307179 17.308681 17.310184 17.311686 17.313189 17.314691 17.316194 17.317696 17.319199 17.320701 17.322204 17.323706 17.325209 17.326711 17.328214 17.329716 17.331219 17.332721 17.334224 17.335726 17.337229 17.338731 17.340234 17.341736 17.343239 17.344741 17.346244 17.347746 17.349249 17.350751 17.352254 17.353756 17.355259 17.356761 17.358264 17.359766 17.361269 17.362771 17.364274 17.365776 17.367279 17.368781 17.370284 17.371786 17.373289 17.374791 17.376294 17.377796 17.379299 17.380801 17.382304 17.383806 17.385309 17.386811 17.388314 17.389816 17.391319 17.392821 17.394324 17.395826 17.397329 17.398831 17.400334 17.401836 17.403339 17.404841 17.406344 17.407846 17.409349 17.410851 17.412354 17.413856 17.415359 17.416861 17.418364 17.419866 17.421369 17.422871 17.424374 17.425876 17.427379 17.428881 17.430384 17.431886 17.433389 17.434891 17.436394 17.437896 17.439399 17.440902 17.442404 17.443907 17.445409 17.446912 17.448414 17.449917 17.451419 17.452922 17.454424 17.455927 17.457429 17.458932 17.460434 17.461937 17.463439 17.464942 17.466444 17.467947 17.469449 17.470952 17.472454 17.473957 17.475459 17.476962 17.478464 17.479967 17.481469 17.482972 17.484474 17.485977 17.487479 17.488982 17.490484 17.491987 17.493489 17.494992 17.496494 17.497997 17.499499 17.501002 17.502504 17.504007 17.505509 17.507012 17.508514 17.510017 17.511519 17.513022 17.514524 17.516027 17.517529 17.519032 17.520534 17.522037 17.523539 17.525042 17.526544 17.528047 17.529549 17.531052 17.532554 17.534057 17.535559 17.537062 17.538564 17.540067 17.541569 17.543072 17.544574 17.546077 17.547579 17.549082 17.550584 17.552087 17.553589 17.555092 17.556594 17.558097 17.559599 17.561102 17.562604 17.564107 17.565609 17.567112 17.568614 17.570117 17.571619 17.573122 17.574624 17.576127 17.577629 17.579132 17.580634 17.582137 17.583639 17.585142 17.586644 17.588147 17.589649 17.591152 17.592654 17.594157 17.595659 17.597162 17.598664 17.600167 17.601669 17.603172 17.604674 17.606177 17.607679 17.609182 17.610684 17.612187 17.613689 17.615192 17.616694 17.618197 17.619699 17.621202 17.622705 17.624207 17.625710 17.627212 17.628715 17.630217 17.631720 17.633222 17.634725 17.636227 17.637730 17.639232 17.640735 17.642237 17.643740 17.645242 17.646745 17.648247 17.649750 17.651252 17.652755 17.654257 17.655760 17.657262 17.658765 17.660267 17.661770 17.663272 17.664775 17.666277 17.667780 17.669282 17.670785 17.672287 17.673790 17.675292 17.676795 17.678297 17.679800 17.681302 17.682805 17.684307 17.685810 17.687312 17.688815 17.690317 17.691820 17.693322 17.694825 17.696327 17.697830 17.699332 17.700835 17.702337 17.703840 17.705342 17.706845 17.708347 17.709850 17.711352 17.712855 17.714357 17.715860 17.717362 17.718865 17.720367 17.721870 17.723372 17.724875 17.726377 17.727880 17.729382 17.730885 17.732387 17.733890 17.735392 17.736895 17.738397 17.739900 17.741402 17.742905 17.744407 17.745910 17.747412 17.748915 17.750417 17.751920 17.753422 17.754925 17.756427 17.757930 17.759432 17.760935 17.762437 17.763940 17.765442 17.766945 17.768447 17.769950 17.771452 17.772955 17.774457 17.775960 17.777462 17.778965 17.780467 17.781970 17.783472 17.784975 17.786477 17.787980 17.789482 17.790985 17.792487 17.793990 17.795492 17.796995 17.798497 17.800000 
Z_COORDINATES 1 float
0.0
POINT_DATA 360000 
SCALARS u float 1
LOOKUP_TABLE default
1.673329 1.671865 1.670401 1.668937 1.667473 1.666009 1.664546 1.663082 1.661619 1.660156 1.658693 1.657231 1.655768 1.654306 1.652844 1.651382 1.649920 1.648458 1.646997 1.645535 1.644074 1.642613 1.641152 1.639691 1.638231 1.636771 1.635311 1.633851 1.632391 1.630931 1.629472 1.628013 1.626554 1.625095 1.623636 1.622178 1.620719 1.619261 1.617804 1.616346 1.614888 1.613431 1.611974 1.610517 1.609061 1.607604 1.606148 1.604692 1.603236 1.601781 1.600325 1.598870 1.597415 1.595961 1.594506 1.593052 1.591598 1.590144 1.588691 1.587238 1.585785 1.584332 1.582879 1.581427 1.579975 1.578523 1.577072 1.575620 1.574169 1.572719 1.571268 1.569818 1.568368 1.566918 1.565469 1.564020 1.562571 1.561122 1.559674 1.558226 1.556778 1.555331 1.553884 1.552437 1.550991 1.549544 1.548098 1.546653 1.545208 1.543763 1.542318 1.540874 1.539430 1.537986 1.536543 1.535100 1.533657 1.532215 1.530773 1.529331 1.527890 1.526449 1.525008 1.523568 1.522128 1.520689 1.519250 1.517811 1.516373 1.514935 1.513497 1.512060 1.510623 1.509187 1.507751 1.506315 1.504880 1.503445 1.502011 1.500577 1.499144 1.497711 1.496278 1.494846 1.493414 1.491983 1.490552 1.489122 1.487692 1.486263 1.484834 1.483405 1.481977 1.480550 1.479123 1.477696 1.476270 1.474845 1.473420 1.471995 1.470572 1.469148 1.467725 1.466303 1.464881 1.463460 1.462039 1.460619 1.459200 1.457781 1.456363 1.454945 1.453528 1.452111 1.450695 1.449280 1.447865 1.446451 1.445038 1.443625 1.442213 1.440801 1.439390 1.437980 1.436571 1.435162 1.433754 1.432346 1.430940 1.429534 1.428128 1.426724 1.425320 1.423917 1.422514 1.421113 1.419712 1.418312 1.416913 1.415514 1.414117 1.412720 1.411324 1.409929 1.408534 1.407141 1.405748 1.404356 1.402965 1.401575 1.400186 1.398798 1.397411 1.396024 1.394639 1.393254 1.391871 1.390488 1.389107 1.387726 1.386346 1.384968 1.383590 1.382214 1.380838 1.379464 1.378090 1.376718 1.375347 1.373977 1.372608 1.371240 1.369873 1.368508 1.367144 1.365780 1.364418 1.363058 1.361698 1.360340 1.358983 1.357627 1.356273 1.354919 1.353568 1.352217 1.350868 1.349520 1.348173 1.346828 1.345485 1.344142 1.342802 1.341462 1.340124 1.338788 1.337453 1.336120 1.334788 1.333458 1.332129 1.330802 1.329476 1.328152 1.326830 1.325510 1.324191 1.322874 1.321558 1.320245 1.318933 1.317623 1.316314 1.315008 1.313703 1.312400 1.311099 1.309800 1.308503 1.307208 1.305915 1.304624 1.303334 1.302047 1.300762 1.299479 1.298198 1.296919 1.295643 1.294368 1.293096 1.291826 1.290558 1.289292 1.288029 1.286768 1.285509 1.284252 1.282998 1.281747 1.280497 1.279251 1.278006 1.276764 1.275525 1.274288 1.273054 1.271822 1.270593 1.269366 1.268142 1.266921 1.265703 1.264487 1.263274 1.262063 1.260856 1.259651 1.258449 1.257250 1.256054 1.254860 1.253670 1.252482 1.251297 1.250116 1.248937 1.247761 1.246589 1.245419 1.244253 1.243090 1.241929 1.240772 1.239618 1.238468 1.237320 1.236176 1.235035 1.233897 1.232763 1.231632 1.230504 1.229380 1.228259 1.227141 1.226027 1.224917 1.223810 1.222706 1.221606 1.220510 1.219417 1.218328 1.217243 1.216161 1.215083 1.214009 1.212939 1.211872 1.210809 1.209751 1.208696 1.207645 1.206598 1.205555 1.204516 1.203481 1.202451 1.201424 1.200402 1.199384 1.198370 1.197361 1.196356 1.195355 1.194359 1.193367 1.192380 1.191397 1.190419 1.189445 1.188476 1.187512 1.186553 1.185599 1.184649 1.183704 1.182764 1.181830 1.180900 1.179975 1.179056 1.178141 1.177232 1.176329 1.175430 1.174537 1.173649 1.172767 1.171890 1.171019 1.170154 1.169294 1.168440 1.167591 1.166749 1.165912 1.165081 1.164257 1.163438 1.162625 1.161819 1.161019 1.160225 1.159437 1.158656 1.157881 1.157112 1.156350 1.155595 1.154846 1.154104 1.153369 1.152640 1.151918 1.151204 1.150496 1.149795 1.149101 1.148415 1.147735 1.147063 1.146398 1.145740 1.145090 1.144448 1.143812 1.143185 1.142565 1.141953 1.141348 1.140751 1.140162 1.139581 1.139008 1.138443 1.137887 1.137338 1.136797 1.136265 1.135741 1.135226 1.134718 1.134220 1.133730 1.133248 1.132776 1.132312 1.131856 1.131410 1.130973 1.130544 1.130125 1.129715 1.129314 1.128922 1.128540 1.128167 1.127803 1.127449 1.127105 1.126770 1.126445 1.126130 1.125824 1.125529 1.125243 1.124968 1.124703 1.124448 1.124203 1.123968 1.123744 1.123531 1.123328 1.123135 1.122953 1.122782 1.122622 1.122472 1.122334 1.122206 1.122090 1.121985 1.121891 1.121808 1.121737 1.121678 1.121630 1.121595 1.121574 1.121594 1.121628 1.121674 1.121731 1.121800 1.121879 1.121970 1.122071 1.122183 1.122306 1.122439 1.122583 1.122737 1.122901 1.123076 1.123261 1.123456 1.123662 1.123877 1.124102 1.124337 1.124582 1.124837 1.125101 1.125375 1.125659 1.125952 1.126254 1.126566 1.126887 1.127218 1.127557 1.127905 1.128263 1.128629 1.129004 1.129388 1.129781 1.130182 1.130592 1.131010 1.131436 1.131871 1.132314 1.132765 1.133224 1.133691 1.134166 1.134649 1.135139 1.135638 1.136143 1.136656 1.137177 1.137705 1.138240 1.138782 1.139331 1.139887 1.140450 1.141020 1.141597 1.142180 1.142770 1.143366 1.143969 1.144578 1.145193 1.145814 1.146442 1.147075 1.147715 1.148360 1.149011 1.149668 1.150330 1.150998 1.151671 1.152350 1.153034 1.153723 1.154418 1.155117 1.155822 1.156532 1.157247 1.157966 1.158690 1.159419 1.160153 1.160891 1.161634 1.162382 1.163133 1.163890 1.164650 1.165415 1.166184 1.166957 1.167735 1.168516 1.169302 1.170091 1.170885 1.171682 1.172483 1.173288 1.174097 1.174910 1.175726 1.176546 1.177370 1.178197 1.179027 1.179862 1.180699 1.181540 1.182385 1.672954 1.671490 1.670025 1.668560 1.667096 1.665631 1.664167 1.662703 1.661239 1.659775 1.658312 1.656848 1.655385 1.653922 1.652459 1.650996 1.649533 1.648071 1.646609 1.645146 1.643684 1.642223 1.640761 1.639299 1.637838 1.636377 1.634916 1.633455 1.631995 1.630534 1.629074 1.627614 1.626154 1.624694 1.623235 1.621776 1.620316 1.618857 1.617399 1.615940 1.614482 1.613024 1.611566 1.610108 1.608650 1.607193 1.605736 1.604279 1.602822 1.601366 1.599909 1.598453 1.596997 1.595542 1.594086 1.592631 1.591176 1.589722 1.588267 1.586813 1.585359 1.583905 1.582451 1.580998 1.579545 1.578092 1.576639 1.575187 1.573735 1.572283 1.570832 1.569380 1.567929 1.566478 1.565028 1.563578 1.562128 1.560678 1.559229 1.557779 1.556331 1.554882 1.553434 1.551986 1.550538 1.549090 1.547643 1.546197 1.544750 1.543304 1.541858 1.540412 1.538967 1.537522 1.536077 1.534633 1.533189 1.531746 1.530302 1.528859 1.527417 1.525974 1.524533 1.523091 1.521650 1.520209 1.518768 1.517328 1.515889 1.514449 1.513010 1.511572 1.510133 1.508696 1.507258 1.505821 1.504384 1.502948 1.501512 1.500077 1.498642 1.497207 1.495773 1.494339 1.492906 1.491473 1.490041 1.488609 1.487178 1.485747 1.484316 1.482886 1.481456 1.480027 1.478598 1.477170 1.475743 1.474315 1.472889 1.471463 1.470037 1.468612 1.467187 1.465763 1.464340 1.462917 1.461494 1.460072 1.458651 1.457230 1.455810 1.454390 1.452971 1.451553 1.450135 1.448718 1.447301 1.445885 1.444469 1.443055 1.441641 1.440227 1.438814 1.437402 1.435990 1.434579 1.433169 1.431760 1.430351 1.428943 1.427535 1.426129 1.424723 1.423317 1.421913 1.420509 1.419106 1.417704 1.416302 1.414902 1.413502 1.412102 1.410704 1.409307 1.407910 1.406514 1.405119 1.403725 1.402332 1.400939 1.399548 1.398157 1.396767 1.395378 1.393990 1.392603 1.391217 1.389832 1.388448 1.387065 1.385683 1.384301 1.382921 1.381542 1.380164 1.378787 1.377411 1.376036 1.374662 1.373289 1.371917 1.370546 1.369177 1.367809 1.366441 1.365075 1.363711 1.362347 1.360984 1.359623 1.358263 1.356904 1.355547 1.354191 1.352836 1.351482 1.350130 1.348779 1.347430 1.346081 1.344734 1.343389 1.342045 1.340703 1.339361 1.338022 1.336684 1.335347 1.334012 1.332678 1.331346 1.330016 1.328687 1.327360 1.326034 1.324710 1.323388 1.322067 1.320748 1.319431 1.318115 1.316802 1.315490 1.314180 1.312871 1.311565 1.310260 1.308958 1.307657 1.306358 1.305061 1.303766 1.302473 1.301182 1.299893 1.298607 1.297322 1.296039 1.294759 1.293480 1.292204 1.290930 1.289658 1.288388 1.287121 1.285856 1.284593 1.283333 1.282075 1.280819 1.279566 1.278315 1.277067 1.275821 1.274577 1.273336 1.272098 1.270862 1.269629 1.268398 1.267170 1.265945 1.264722 1.263502 1.262285 1.261070 1.259858 1.258649 1.257443 1.256240 1.255039 1.253842 1.252647 1.251455 1.250266 1.249080 1.247898 1.246718 1.245541 1.244367 1.243196 1.242029 1.240864 1.239703 1.238545 1.237390 1.236238 1.235090 1.233944 1.232803 1.231664 1.230529 1.229397 1.228268 1.227143 1.226021 1.224903 1.223788 1.222677 1.221569 1.220465 1.219364 1.218267 1.217174 1.216084 1.214998 1.213916 1.212838 1.211763 1.210692 1.209625 1.208562 1.207503 1.206447 1.205396 1.204349 1.203306 1.202267 1.201232 1.200201 1.199174 1.198152 1.197134 1.196120 1.195110 1.194105 1.193105 1.192108 1.191117 1.190130 1.189147 1.188169 1.187196 1.186227 1.185264 1.184305 1.183351 1.182402 1.181457 1.180518 1.179584 1.178655 1.177731 1.176812 1.175899 1.174990 1.174088 1.173190 1.172298 1.171411 1.170530 1.169654 1.168784 1.167920 1.167062 1.166209 1.165362 1.164521 1.163686 1.162857 1.162034 1.161217 1.160406 1.159601 1.158803 1.158011 1.157225 1.156446 1.155673 1.154907 1.154147 1.153394 1.152648 1.151909 1.151176 1.150450 1.149731 1.149019 1.148314 1.147616 1.146926 1.146242 1.145566 1.144897 1.144235 1.143581 1.142935 1.142296 1.141664 1.141040 1.140424 1.139816 1.139215 1.138623 1.138038 1.137461 1.136893 1.136332 1.135780 1.135236 1.134700 1.134173 1.133654 1.133144 1.132642 1.132148 1.131664 1.131188 1.130721 1.130262 1.129813 1.129373 1.128941 1.128519 1.128106 1.127702 1.127308 1.126923 1.126547 1.126181 1.125824 1.125477 1.125140 1.124813 1.124495 1.124188 1.123890 1.123602 1.123325 1.123058 1.122801 1.122554 1.122318 1.122092 1.121877 1.121672 1.121478 1.121295 1.121122 1.120961 1.120810 1.120670 1.120542 1.120424 1.120318 1.120224 1.120140 1.120069 1.120009 1.119961 1.119926 1.119904 1.119925 1.119959 1.120005 1.120063 1.120132 1.120212 1.120303 1.120405 1.120518 1.120642 1.120776 1.120921 1.121076 1.121242 1.121418 1.121605 1.121801 1.122008 1.122225 1.122452 1.122688 1.122935 1.123192 1.123458 1.123734 1.124020 1.124315 1.124619 1.124933 1.125256 1.125589 1.125931 1.126281 1.126641 1.127010 1.127388 1.127774 1.128169 1.128573 1.128985 1.129406 1.129835 1.130273 1.130719 1.131173 1.131635 1.132105 1.132582 1.133068 1.133561 1.134063 1.134571 1.135087 1.135611 1.136142 1.136680 1.137225 1.137777 1.138336 1.138902 1.139475 1.140055 1.140641 1.141234 1.141834 1.142439 1.143051 1.143670 1.144294 1.144925 1.145561 1.146204 1.146852 1.147506 1.148166 1.148831 1.149502 1.150179 1.150860 1.151548 1.152240 1.152937 1.153640 1.154348 1.155060 1.155778 1.156500 1.157228 1.157960 1.158696 1.159437 1.160183 1.160933 1.161688 1.162447 1.163210 1.163978 1.164750 1.165526 1.166306 1.167090 1.167879 1.168671 1.169467 1.170267 1.171071 1.171879 1.172690 1.173506 1.174324 1.175147 1.175973 1.176803 1.177636 1.178473 1.179313 1.180157 1.181004 1.672584 1.671118 1.669652 1.668187 1.666722 1.665257 1.663792 1.662327 1.660862 1.659398 1.657933 1.656469 1.655005 1.653541 1.652078 1.650614 1.649151 1.647687 1.646224 1.644761 1.643299 1.641836 1.640373 1.638911 1.637449 1.635987 1.634525 1.633064 1.631602 1.630141 1.628680 1.627219 1.625758 1.624298 1.622837 1.621377 1.619917 1.618457 1.616998 1.615538 1.614079 1.612620 1.611161 1.609703 1.608244 1.606786 1.605328 1.603870 1.602412 1.600955 1.599498 1.598041 1.596584 1.595127 1.593671 1.592215 1.590759 1.589303 1.587847 1.586392 1.584937 1.583482 1.582028 1.580573 1.579119 1.577665 1.576212 1.574758 1.573305 1.571852 1.570400 1.568947 1.567495 1.566043 1.564592 1.563140 1.561689 1.560238 1.558788 1.557337 1.555887 1.554438 1.552988 1.551539 1.550090 1.548641 1.547193 1.545745 1.544297 1.542850 1.541403 1.539956 1.538509 1.537063 1.535617 1.534172 1.532726 1.531282 1.529837 1.528393 1.526949 1.525505 1.524062 1.522619 1.521176 1.519734 1.518292 1.516851 1.515410 1.513969 1.512529 1.511088 1.509649 1.508210 1.506771 1.505332 1.503894 1.502456 1.501019 1.499582 1.498146 1.496709 1.495274 1.493839 1.492404 1.490969 1.489535 1.488102 1.486669 1.485236 1.483804 1.482372 1.480941 1.479510 1.478080 1.476650 1.475221 1.473792 1.472363 1.470936 1.469508 1.468081 1.466655 1.465229 1.463804 1.462379 1.460955 1.459531 1.458108 1.456685 1.455263 1.453842 1.452421 1.451000 1.449581 1.448161 1.446743 1.445325 1.443907 1.442491 1.441075 1.439659 1.438244 1.436830 1.435416 1.434003 1.432591 1.431180 1.429769 1.428358 1.426949 1.425540 1.424132 1.422724 1.421318 1.419912 1.418506 1.417102 1.415698 1.414295 1.412893 1.411492 1.410091 1.408691 1.407292 1.405894 1.404497 1.403100 1.401704 1.400310 1.398916 1.397522 1.396130 1.394739 1.393348 1.391959 1.390570 1.389183 1.387796 1.386410 1.385025 1.383642 1.382259 1.380877 1.379496 1.378116 1.376738 1.375360 1.373983 1.372608 1.371233 1.369860 1.368487 1.367116 1.365746 1.364377 1.363010 1.361643 1.360278 1.358914 1.357551 1.356189 1.354828 1.353469 1.352111 1.350755 1.349399 1.348045 1.346693 1.345341 1.343991 1.342643 1.341296 1.339950 1.338605 1.337263 1.335921 1.334581 1.333243 1.331906 1.330570 1.329237 1.327904 1.326574 1.325245 1.323917 1.322591 1.321267 1.319945 1.318624 1.317305 1.315988 1.314672 1.313359 1.312047 1.310737 1.309428 1.308122 1.306818 1.305515 1.304214 1.302916 1.301619 1.300324 1.299032 1.297741 1.296452 1.295166 1.293881 1.292599 1.291319 1.290041 1.288765 1.287492 1.286220 1.284951 1.283685 1.282420 1.281158 1.279898 1.278641 1.277386 1.276134 1.274884 1.273636 1.272391 1.271148 1.269908 1.268671 1.267436 1.266204 1.264974 1.263747 1.262523 1.261302 1.260083 1.258867 1.257654 1.256443 1.255236 1.254031 1.252829 1.251630 1.250434 1.249241 1.248051 1.246864 1.245680 1.244499 1.243321 1.242146 1.240974 1.239805 1.238639 1.237477 1.236318 1.235162 1.234009 1.232860 1.231713 1.230570 1.229431 1.228295 1.227162 1.226032 1.224906 1.223784 1.222665 1.221549 1.220437 1.219328 1.218224 1.217122 1.216025 1.214931 1.213840 1.212754 1.211671 1.210592 1.209517 1.208445 1.207378 1.206314 1.205255 1.204199 1.203147 1.202100 1.201056 1.200017 1.198982 1.197951 1.196924 1.195901 1.194883 1.193869 1.192860 1.191855 1.190854 1.189858 1.188867 1.187880 1.186897 1.185920 1.184947 1.183978 1.183015 1.182057 1.181103 1.180154 1.179211 1.178272 1.177339 1.176410 1.175487 1.174569 1.173656 1.172749 1.171847 1.170950 1.170059 1.169173 1.168293 1.167419 1.166550 1.165687 1.164830 1.163979 1.163133 1.162294 1.161460 1.160633 1.159811 1.158996 1.158187 1.157384 1.156588 1.155798 1.155014 1.154237 1.153467 1.152703 1.151945 1.151195 1.150451 1.149714 1.148984 1.148261 1.147545 1.146836 1.146134 1.145439 1.144751 1.144071 1.143398 1.142732 1.142074 1.141424 1.140781 1.140145 1.139518 1.138898 1.138286 1.137681 1.137085 1.136497 1.135916 1.135344 1.134780 1.134224 1.133676 1.133137 1.132606 1.132084 1.131570 1.131065 1.130568 1.130080 1.129601 1.129131 1.128669 1.128217 1.127773 1.127339 1.126914 1.126498 1.126091 1.125694 1.125306 1.124928 1.124559 1.124200 1.123850 1.123511 1.123181 1.122861 1.122551 1.122251 1.121962 1.121682 1.121413 1.121154 1.120905 1.120667 1.120440 1.120223 1.120016 1.119821 1.119636 1.119462 1.119300 1.119148 1.119007 1.118877 1.118759 1.118652 1.118557 1.118473 1.118401 1.118340 1.118292 1.118257 1.118235 1.118256 1.118290 1.118336 1.118395 1.118464 1.118545 1.118637 1.118740 1.118853 1.118978 1.119113 1.119259 1.119416 1.119583 1.119760 1.119948 1.120146 1.120354 1.120573 1.120801 1.121040 1.121288 1.121547 1.121815 1.122093 1.122380 1.122678 1.122984 1.123301 1.123626 1.123961 1.124305 1.124658 1.125020 1.125392 1.125772 1.126161 1.126559 1.126965 1.127380 1.127804 1.128236 1.128676 1.129124 1.129581 1.130046 1.130519 1.131000 1.131488 1.131985 1.132489 1.133000 1.133519 1.134046 1.134580 1.135121 1.135669 1.136224 1.136787 1.137356 1.137932 1.138515 1.139104 1.139700 1.140303 1.140912 1.141527 1.142148 1.142776 1.143409 1.144049 1.144695 1.145346 1.146003 1.146666 1.147335 1.148008 1.148688 1.149373 1.150063 1.150758 1.151459 1.152164 1.152875 1.153591 1.154311 1.155037 1.155767 1.156502 1.157241 1.157985 1.158734 1.159487 1.160244 1.161006 1.161773 1.162543 1.163318 1.164097 1.164879 1.165666 1.166457 1.167252 1.168051 1.168854 1.169661 1.170471 1.171285 1.172103 1.172925 1.173750 1.174579 1.175411 1.176247 1.177087 1.177929 1.178776 1.179626 1.672216 1.670750 1.669283 1.667817 1.666351 1.664886 1.663420 1.661955 1.660489 1.659024 1.657559 1.656094 1.654629 1.653165 1.651700 1.650236 1.648772 1.647308 1.645844 1.644380 1.642916 1.641453 1.639990 1.638527 1.637064 1.635601 1.634139 1.632676 1.631214 1.629752 1.628290 1.626828 1.625367 1.623905 1.622444 1.620983 1.619522 1.618061 1.616601 1.615141 1.613681 1.612221 1.610761 1.609301 1.607842 1.606383 1.604924 1.603465 1.602007 1.600548 1.599090 1.597632 1.596174 1.594717 1.593259 1.591802 1.590345 1.588889 1.587432 1.585976 1.584520 1.583064 1.581608 1.580153 1.578698 1.577243 1.575788 1.574334 1.572880 1.571426 1.569972 1.568519 1.567065 1.565612 1.564160 1.562707 1.561255 1.559803 1.558351 1.556900 1.555449 1.553998 1.552547 1.551097 1.549647 1.548197 1.546748 1.545298 1.543849 1.542401 1.540952 1.539504 1.538057 1.536609 1.535162 1.533715 1.532269 1.530823 1.529377 1.527931 1.526486 1.525041 1.523596 1.522152 1.520708 1.519265 1.517821 1.516379 1.514936 1.513494 1.512052 1.510611 1.509170 1.507729 1.506289 1.504849 1.503409 1.501970 1.500531 1.499093 1.497655 1.496217 1.494780 1.493343 1.491907 1.490471 1.489035 1.487600 1.486166 1.484731 1.483298 1.481864 1.480431 1.478999 1.477567 1.476135 1.474704 1.473274 1.471844 1.470414 1.468985 1.467557 1.466128 1.464701 1.463274 1.461847 1.460421 1.458996 1.457571 1.456146 1.454722 1.453299 1.451876 1.450454 1.449032 1.447611 1.446191 1.444771 1.443352 1.441933 1.440515 1.439097 1.437680 1.436264 1.434849 1.433434 1.432019 1.430606 1.429193 1.427780 1.426369 1.424958 1.423547 1.422138 1.420729 1.419321